    1C
    1UUSER                                                              
    1UDATE              28.october.2024                                 
    1UTIME              12:28:20                                        
    1UHOST                                                              
    1UPGM               CalculiX                                        
    1UVERSION           Version 2.15                             
    1UCOMPILETIME       Sun, Sep  1, 2019  1:32:32 PM                    
    1UDIR                                                               
    1UDBN                                                               
    1UMAT    1MATERIAL-1                                                
    2C                          1116                                     1
 -1         1 0.00000E+00-5.00000E+00 5.00000E+00
 -1         2 0.00000E+00-4.00000E+00 5.00000E+00
 -1         3 0.00000E+00-3.00000E+00 5.00000E+00
 -1         4 0.00000E+00-2.00000E+00 5.00000E+00
 -1         5 0.00000E+00-1.00000E+00 5.00000E+00
 -1         6 0.00000E+00 0.00000E+00 5.00000E+00
 -1         7 0.00000E+00-5.00000E+00 4.00000E+00
 -1         8 0.00000E+00-4.00000E+00 4.00000E+00
 -1         9 0.00000E+00-3.00000E+00 4.00000E+00
 -1        10 0.00000E+00-2.00000E+00 4.00000E+00
 -1        11 0.00000E+00-1.00000E+00 4.00000E+00
 -1        12 0.00000E+00 0.00000E+00 4.00000E+00
 -1        13 0.00000E+00-5.00000E+00 3.00000E+00
 -1        14 0.00000E+00-4.00000E+00 3.00000E+00
 -1        15 0.00000E+00-3.00000E+00 3.00000E+00
 -1        16 0.00000E+00-2.00000E+00 3.00000E+00
 -1        17 0.00000E+00-1.00000E+00 3.00000E+00
 -1        18 0.00000E+00 0.00000E+00 3.00000E+00
 -1        19 0.00000E+00-5.00000E+00 2.00000E+00
 -1        20 0.00000E+00-4.00000E+00 2.00000E+00
 -1        21 0.00000E+00-3.00000E+00 2.00000E+00
 -1        22 0.00000E+00-2.00000E+00 2.00000E+00
 -1        23 0.00000E+00-1.00000E+00 2.00000E+00
 -1        24 0.00000E+00 0.00000E+00 2.00000E+00
 -1        25 0.00000E+00-5.00000E+00 1.00000E+00
 -1        26 0.00000E+00-4.00000E+00 1.00000E+00
 -1        27 0.00000E+00-3.00000E+00 1.00000E+00
 -1        28 0.00000E+00-2.00000E+00 1.00000E+00
 -1        29 0.00000E+00-1.00000E+00 1.00000E+00
 -1        30 0.00000E+00 0.00000E+00 1.00000E+00
 -1        31 0.00000E+00-5.00000E+00 0.00000E+00
 -1        32 0.00000E+00-4.00000E+00 0.00000E+00
 -1        33 0.00000E+00-3.00000E+00 0.00000E+00
 -1        34 0.00000E+00-2.00000E+00 0.00000E+00
 -1        35 0.00000E+00-1.00000E+00 0.00000E+00
 -1        36 0.00000E+00 0.00000E+00 0.00000E+00
 -1        37 1.00000E+00-5.00000E+00 5.00000E+00
 -1        38 1.00000E+00-4.00000E+00 5.00000E+00
 -1        39 1.00000E+00-3.00000E+00 5.00000E+00
 -1        40 1.00000E+00-2.00000E+00 5.00000E+00
 -1        41 1.00000E+00-1.00000E+00 5.00000E+00
 -1        42 1.00000E+00 0.00000E+00 5.00000E+00
 -1        43 1.00000E+00-5.00000E+00 4.00000E+00
 -1        44 1.00000E+00-4.00000E+00 4.00000E+00
 -1        45 1.00000E+00-3.00000E+00 4.00000E+00
 -1        46 1.00000E+00-2.00000E+00 4.00000E+00
 -1        47 1.00000E+00-1.00000E+00 4.00000E+00
 -1        48 1.00000E+00 0.00000E+00 4.00000E+00
 -1        49 1.00000E+00-5.00000E+00 3.00000E+00
 -1        50 1.00000E+00-4.00000E+00 3.00000E+00
 -1        51 1.00000E+00-3.00000E+00 3.00000E+00
 -1        52 1.00000E+00-2.00000E+00 3.00000E+00
 -1        53 1.00000E+00-1.00000E+00 3.00000E+00
 -1        54 1.00000E+00 0.00000E+00 3.00000E+00
 -1        55 1.00000E+00-5.00000E+00 2.00000E+00
 -1        56 1.00000E+00-4.00000E+00 2.00000E+00
 -1        57 1.00000E+00-3.00000E+00 2.00000E+00
 -1        58 1.00000E+00-2.00000E+00 2.00000E+00
 -1        59 1.00000E+00-1.00000E+00 2.00000E+00
 -1        60 1.00000E+00 0.00000E+00 2.00000E+00
 -1        61 1.00000E+00-5.00000E+00 1.00000E+00
 -1        62 1.00000E+00-4.00000E+00 1.00000E+00
 -1        63 1.00000E+00-3.00000E+00 1.00000E+00
 -1        64 1.00000E+00-2.00000E+00 1.00000E+00
 -1        65 1.00000E+00-1.00000E+00 1.00000E+00
 -1        66 1.00000E+00 0.00000E+00 1.00000E+00
 -1        67 1.00000E+00-5.00000E+00 0.00000E+00
 -1        68 1.00000E+00-4.00000E+00 0.00000E+00
 -1        69 1.00000E+00-3.00000E+00 0.00000E+00
 -1        70 1.00000E+00-2.00000E+00 0.00000E+00
 -1        71 1.00000E+00-1.00000E+00 0.00000E+00
 -1        72 1.00000E+00 0.00000E+00 0.00000E+00
 -1        73 2.00000E+00-5.00000E+00 5.00000E+00
 -1        74 2.00000E+00-4.00000E+00 5.00000E+00
 -1        75 2.00000E+00-3.00000E+00 5.00000E+00
 -1        76 2.00000E+00-2.00000E+00 5.00000E+00
 -1        77 2.00000E+00-1.00000E+00 5.00000E+00
 -1        78 2.00000E+00 0.00000E+00 5.00000E+00
 -1        79 2.00000E+00-5.00000E+00 4.00000E+00
 -1        80 2.00000E+00-4.00000E+00 4.00000E+00
 -1        81 2.00000E+00-3.00000E+00 4.00000E+00
 -1        82 2.00000E+00-2.00000E+00 4.00000E+00
 -1        83 2.00000E+00-1.00000E+00 4.00000E+00
 -1        84 2.00000E+00 0.00000E+00 4.00000E+00
 -1        85 2.00000E+00-5.00000E+00 3.00000E+00
 -1        86 2.00000E+00-4.00000E+00 3.00000E+00
 -1        87 2.00000E+00-3.00000E+00 3.00000E+00
 -1        88 2.00000E+00-2.00000E+00 3.00000E+00
 -1        89 2.00000E+00-1.00000E+00 3.00000E+00
 -1        90 2.00000E+00 0.00000E+00 3.00000E+00
 -1        91 2.00000E+00-5.00000E+00 2.00000E+00
 -1        92 2.00000E+00-4.00000E+00 2.00000E+00
 -1        93 2.00000E+00-3.00000E+00 2.00000E+00
 -1        94 2.00000E+00-2.00000E+00 2.00000E+00
 -1        95 2.00000E+00-1.00000E+00 2.00000E+00
 -1        96 2.00000E+00 0.00000E+00 2.00000E+00
 -1        97 2.00000E+00-5.00000E+00 1.00000E+00
 -1        98 2.00000E+00-4.00000E+00 1.00000E+00
 -1        99 2.00000E+00-3.00000E+00 1.00000E+00
 -1       100 2.00000E+00-2.00000E+00 1.00000E+00
 -1       101 2.00000E+00-1.00000E+00 1.00000E+00
 -1       102 2.00000E+00 0.00000E+00 1.00000E+00
 -1       103 2.00000E+00-5.00000E+00 0.00000E+00
 -1       104 2.00000E+00-4.00000E+00 0.00000E+00
 -1       105 2.00000E+00-3.00000E+00 0.00000E+00
 -1       106 2.00000E+00-2.00000E+00 0.00000E+00
 -1       107 2.00000E+00-1.00000E+00 0.00000E+00
 -1       108 2.00000E+00 0.00000E+00 0.00000E+00
 -1       109 3.00000E+00-5.00000E+00 5.00000E+00
 -1       110 3.00000E+00-4.00000E+00 5.00000E+00
 -1       111 3.00000E+00-3.00000E+00 5.00000E+00
 -1       112 3.00000E+00-2.00000E+00 5.00000E+00
 -1       113 3.00000E+00-1.00000E+00 5.00000E+00
 -1       114 3.00000E+00 0.00000E+00 5.00000E+00
 -1       115 3.00000E+00-5.00000E+00 4.00000E+00
 -1       116 3.00000E+00-4.00000E+00 4.00000E+00
 -1       117 3.00000E+00-3.00000E+00 4.00000E+00
 -1       118 3.00000E+00-2.00000E+00 4.00000E+00
 -1       119 3.00000E+00-1.00000E+00 4.00000E+00
 -1       120 3.00000E+00 0.00000E+00 4.00000E+00
 -1       121 3.00000E+00-5.00000E+00 3.00000E+00
 -1       122 3.00000E+00-4.00000E+00 3.00000E+00
 -1       123 3.00000E+00-3.00000E+00 3.00000E+00
 -1       124 3.00000E+00-2.00000E+00 3.00000E+00
 -1       125 3.00000E+00-1.00000E+00 3.00000E+00
 -1       126 3.00000E+00 0.00000E+00 3.00000E+00
 -1       127 3.00000E+00-5.00000E+00 2.00000E+00
 -1       128 3.00000E+00-4.00000E+00 2.00000E+00
 -1       129 3.00000E+00-3.00000E+00 2.00000E+00
 -1       130 3.00000E+00-2.00000E+00 2.00000E+00
 -1       131 3.00000E+00-1.00000E+00 2.00000E+00
 -1       132 3.00000E+00 0.00000E+00 2.00000E+00
 -1       133 3.00000E+00-5.00000E+00 1.00000E+00
 -1       134 3.00000E+00-4.00000E+00 1.00000E+00
 -1       135 3.00000E+00-3.00000E+00 1.00000E+00
 -1       136 3.00000E+00-2.00000E+00 1.00000E+00
 -1       137 3.00000E+00-1.00000E+00 1.00000E+00
 -1       138 3.00000E+00 0.00000E+00 1.00000E+00
 -1       139 3.00000E+00-5.00000E+00 0.00000E+00
 -1       140 3.00000E+00-4.00000E+00 0.00000E+00
 -1       141 3.00000E+00-3.00000E+00 0.00000E+00
 -1       142 3.00000E+00-2.00000E+00 0.00000E+00
 -1       143 3.00000E+00-1.00000E+00 0.00000E+00
 -1       144 3.00000E+00 0.00000E+00 0.00000E+00
 -1       145 4.00000E+00-5.00000E+00 5.00000E+00
 -1       146 4.00000E+00-4.00000E+00 5.00000E+00
 -1       147 4.00000E+00-3.00000E+00 5.00000E+00
 -1       148 4.00000E+00-2.00000E+00 5.00000E+00
 -1       149 4.00000E+00-1.00000E+00 5.00000E+00
 -1       150 4.00000E+00 0.00000E+00 5.00000E+00
 -1       151 4.00000E+00-5.00000E+00 4.00000E+00
 -1       152 4.00000E+00-4.00000E+00 4.00000E+00
 -1       153 4.00000E+00-3.00000E+00 4.00000E+00
 -1       154 4.00000E+00-2.00000E+00 4.00000E+00
 -1       155 4.00000E+00-1.00000E+00 4.00000E+00
 -1       156 4.00000E+00 0.00000E+00 4.00000E+00
 -1       157 4.00000E+00-5.00000E+00 3.00000E+00
 -1       158 4.00000E+00-4.00000E+00 3.00000E+00
 -1       159 4.00000E+00-3.00000E+00 3.00000E+00
 -1       160 4.00000E+00-2.00000E+00 3.00000E+00
 -1       161 4.00000E+00-1.00000E+00 3.00000E+00
 -1       162 4.00000E+00 0.00000E+00 3.00000E+00
 -1       163 4.00000E+00-5.00000E+00 2.00000E+00
 -1       164 4.00000E+00-4.00000E+00 2.00000E+00
 -1       165 4.00000E+00-3.00000E+00 2.00000E+00
 -1       166 4.00000E+00-2.00000E+00 2.00000E+00
 -1       167 4.00000E+00-1.00000E+00 2.00000E+00
 -1       168 4.00000E+00 0.00000E+00 2.00000E+00
 -1       169 4.00000E+00-5.00000E+00 1.00000E+00
 -1       170 4.00000E+00-4.00000E+00 1.00000E+00
 -1       171 4.00000E+00-3.00000E+00 1.00000E+00
 -1       172 4.00000E+00-2.00000E+00 1.00000E+00
 -1       173 4.00000E+00-1.00000E+00 1.00000E+00
 -1       174 4.00000E+00 0.00000E+00 1.00000E+00
 -1       175 4.00000E+00-5.00000E+00 0.00000E+00
 -1       176 4.00000E+00-4.00000E+00 0.00000E+00
 -1       177 4.00000E+00-3.00000E+00 0.00000E+00
 -1       178 4.00000E+00-2.00000E+00 0.00000E+00
 -1       179 4.00000E+00-1.00000E+00 0.00000E+00
 -1       180 4.00000E+00 0.00000E+00 0.00000E+00
 -1       181 5.00000E+00-5.00000E+00 5.00000E+00
 -1       182 5.00000E+00-4.00000E+00 5.00000E+00
 -1       183 5.00000E+00-3.00000E+00 5.00000E+00
 -1       184 5.00000E+00-2.00000E+00 5.00000E+00
 -1       185 5.00000E+00-1.00000E+00 5.00000E+00
 -1       186 5.00000E+00 0.00000E+00 5.00000E+00
 -1       187 5.00000E+00-5.00000E+00 4.00000E+00
 -1       188 5.00000E+00-4.00000E+00 4.00000E+00
 -1       189 5.00000E+00-3.00000E+00 4.00000E+00
 -1       190 5.00000E+00-2.00000E+00 4.00000E+00
 -1       191 5.00000E+00-1.00000E+00 4.00000E+00
 -1       192 5.00000E+00 0.00000E+00 4.00000E+00
 -1       193 5.00000E+00-5.00000E+00 3.00000E+00
 -1       194 5.00000E+00-4.00000E+00 3.00000E+00
 -1       195 5.00000E+00-3.00000E+00 3.00000E+00
 -1       196 5.00000E+00-2.00000E+00 3.00000E+00
 -1       197 5.00000E+00-1.00000E+00 3.00000E+00
 -1       198 5.00000E+00 0.00000E+00 3.00000E+00
 -1       199 5.00000E+00-5.00000E+00 2.00000E+00
 -1       200 5.00000E+00-4.00000E+00 2.00000E+00
 -1       201 5.00000E+00-3.00000E+00 2.00000E+00
 -1       202 5.00000E+00-2.00000E+00 2.00000E+00
 -1       203 5.00000E+00-1.00000E+00 2.00000E+00
 -1       204 5.00000E+00 0.00000E+00 2.00000E+00
 -1       205 5.00000E+00-5.00000E+00 1.00000E+00
 -1       206 5.00000E+00-4.00000E+00 1.00000E+00
 -1       207 5.00000E+00-3.00000E+00 1.00000E+00
 -1       208 5.00000E+00-2.00000E+00 1.00000E+00
 -1       209 5.00000E+00-1.00000E+00 1.00000E+00
 -1       210 5.00000E+00 0.00000E+00 1.00000E+00
 -1       211 5.00000E+00-5.00000E+00 0.00000E+00
 -1       212 5.00000E+00-4.00000E+00 0.00000E+00
 -1       213 5.00000E+00-3.00000E+00 0.00000E+00
 -1       214 5.00000E+00-2.00000E+00 0.00000E+00
 -1       215 5.00000E+00-1.00000E+00 0.00000E+00
 -1       216 5.00000E+00 0.00000E+00 0.00000E+00
 -1       217 6.00000E+00-5.00000E+00 5.00000E+00
 -1       218 6.00000E+00-4.00000E+00 5.00000E+00
 -1       219 6.00000E+00-3.00000E+00 5.00000E+00
 -1       220 6.00000E+00-2.00000E+00 5.00000E+00
 -1       221 6.00000E+00-1.00000E+00 5.00000E+00
 -1       222 6.00000E+00 0.00000E+00 5.00000E+00
 -1       223 6.00000E+00-5.00000E+00 4.00000E+00
 -1       224 6.00000E+00-4.00000E+00 4.00000E+00
 -1       225 6.00000E+00-3.00000E+00 4.00000E+00
 -1       226 6.00000E+00-2.00000E+00 4.00000E+00
 -1       227 6.00000E+00-1.00000E+00 4.00000E+00
 -1       228 6.00000E+00 0.00000E+00 4.00000E+00
 -1       229 6.00000E+00-5.00000E+00 3.00000E+00
 -1       230 6.00000E+00-4.00000E+00 3.00000E+00
 -1       231 6.00000E+00-3.00000E+00 3.00000E+00
 -1       232 6.00000E+00-2.00000E+00 3.00000E+00
 -1       233 6.00000E+00-1.00000E+00 3.00000E+00
 -1       234 6.00000E+00 0.00000E+00 3.00000E+00
 -1       235 6.00000E+00-5.00000E+00 2.00000E+00
 -1       236 6.00000E+00-4.00000E+00 2.00000E+00
 -1       237 6.00000E+00-3.00000E+00 2.00000E+00
 -1       238 6.00000E+00-2.00000E+00 2.00000E+00
 -1       239 6.00000E+00-1.00000E+00 2.00000E+00
 -1       240 6.00000E+00 0.00000E+00 2.00000E+00
 -1       241 6.00000E+00-5.00000E+00 1.00000E+00
 -1       242 6.00000E+00-4.00000E+00 1.00000E+00
 -1       243 6.00000E+00-3.00000E+00 1.00000E+00
 -1       244 6.00000E+00-2.00000E+00 1.00000E+00
 -1       245 6.00000E+00-1.00000E+00 1.00000E+00
 -1       246 6.00000E+00 0.00000E+00 1.00000E+00
 -1       247 6.00000E+00-5.00000E+00 0.00000E+00
 -1       248 6.00000E+00-4.00000E+00 0.00000E+00
 -1       249 6.00000E+00-3.00000E+00 0.00000E+00
 -1       250 6.00000E+00-2.00000E+00 0.00000E+00
 -1       251 6.00000E+00-1.00000E+00 0.00000E+00
 -1       252 6.00000E+00 0.00000E+00 0.00000E+00
 -1       253 7.00000E+00-5.00000E+00 5.00000E+00
 -1       254 7.00000E+00-4.00000E+00 5.00000E+00
 -1       255 7.00000E+00-3.00000E+00 5.00000E+00
 -1       256 7.00000E+00-2.00000E+00 5.00000E+00
 -1       257 7.00000E+00-1.00000E+00 5.00000E+00
 -1       258 7.00000E+00 0.00000E+00 5.00000E+00
 -1       259 7.00000E+00-5.00000E+00 4.00000E+00
 -1       260 7.00000E+00-4.00000E+00 4.00000E+00
 -1       261 7.00000E+00-3.00000E+00 4.00000E+00
 -1       262 7.00000E+00-2.00000E+00 4.00000E+00
 -1       263 7.00000E+00-1.00000E+00 4.00000E+00
 -1       264 7.00000E+00 0.00000E+00 4.00000E+00
 -1       265 7.00000E+00-5.00000E+00 3.00000E+00
 -1       266 7.00000E+00-4.00000E+00 3.00000E+00
 -1       267 7.00000E+00-3.00000E+00 3.00000E+00
 -1       268 7.00000E+00-2.00000E+00 3.00000E+00
 -1       269 7.00000E+00-1.00000E+00 3.00000E+00
 -1       270 7.00000E+00 0.00000E+00 3.00000E+00
 -1       271 7.00000E+00-5.00000E+00 2.00000E+00
 -1       272 7.00000E+00-4.00000E+00 2.00000E+00
 -1       273 7.00000E+00-3.00000E+00 2.00000E+00
 -1       274 7.00000E+00-2.00000E+00 2.00000E+00
 -1       275 7.00000E+00-1.00000E+00 2.00000E+00
 -1       276 7.00000E+00 0.00000E+00 2.00000E+00
 -1       277 7.00000E+00-5.00000E+00 1.00000E+00
 -1       278 7.00000E+00-4.00000E+00 1.00000E+00
 -1       279 7.00000E+00-3.00000E+00 1.00000E+00
 -1       280 7.00000E+00-2.00000E+00 1.00000E+00
 -1       281 7.00000E+00-1.00000E+00 1.00000E+00
 -1       282 7.00000E+00 0.00000E+00 1.00000E+00
 -1       283 7.00000E+00-5.00000E+00 0.00000E+00
 -1       284 7.00000E+00-4.00000E+00 0.00000E+00
 -1       285 7.00000E+00-3.00000E+00 0.00000E+00
 -1       286 7.00000E+00-2.00000E+00 0.00000E+00
 -1       287 7.00000E+00-1.00000E+00 0.00000E+00
 -1       288 7.00000E+00 0.00000E+00 0.00000E+00
 -1       289 8.00000E+00-5.00000E+00 5.00000E+00
 -1       290 8.00000E+00-4.00000E+00 5.00000E+00
 -1       291 8.00000E+00-3.00000E+00 5.00000E+00
 -1       292 8.00000E+00-2.00000E+00 5.00000E+00
 -1       293 8.00000E+00-1.00000E+00 5.00000E+00
 -1       294 8.00000E+00 0.00000E+00 5.00000E+00
 -1       295 8.00000E+00-5.00000E+00 4.00000E+00
 -1       296 8.00000E+00-4.00000E+00 4.00000E+00
 -1       297 8.00000E+00-3.00000E+00 4.00000E+00
 -1       298 8.00000E+00-2.00000E+00 4.00000E+00
 -1       299 8.00000E+00-1.00000E+00 4.00000E+00
 -1       300 8.00000E+00 0.00000E+00 4.00000E+00
 -1       301 8.00000E+00-5.00000E+00 3.00000E+00
 -1       302 8.00000E+00-4.00000E+00 3.00000E+00
 -1       303 8.00000E+00-3.00000E+00 3.00000E+00
 -1       304 8.00000E+00-2.00000E+00 3.00000E+00
 -1       305 8.00000E+00-1.00000E+00 3.00000E+00
 -1       306 8.00000E+00 0.00000E+00 3.00000E+00
 -1       307 8.00000E+00-5.00000E+00 2.00000E+00
 -1       308 8.00000E+00-4.00000E+00 2.00000E+00
 -1       309 8.00000E+00-3.00000E+00 2.00000E+00
 -1       310 8.00000E+00-2.00000E+00 2.00000E+00
 -1       311 8.00000E+00-1.00000E+00 2.00000E+00
 -1       312 8.00000E+00 0.00000E+00 2.00000E+00
 -1       313 8.00000E+00-5.00000E+00 1.00000E+00
 -1       314 8.00000E+00-4.00000E+00 1.00000E+00
 -1       315 8.00000E+00-3.00000E+00 1.00000E+00
 -1       316 8.00000E+00-2.00000E+00 1.00000E+00
 -1       317 8.00000E+00-1.00000E+00 1.00000E+00
 -1       318 8.00000E+00 0.00000E+00 1.00000E+00
 -1       319 8.00000E+00-5.00000E+00 0.00000E+00
 -1       320 8.00000E+00-4.00000E+00 0.00000E+00
 -1       321 8.00000E+00-3.00000E+00 0.00000E+00
 -1       322 8.00000E+00-2.00000E+00 0.00000E+00
 -1       323 8.00000E+00-1.00000E+00 0.00000E+00
 -1       324 8.00000E+00 0.00000E+00 0.00000E+00
 -1       325 9.00000E+00-5.00000E+00 5.00000E+00
 -1       326 9.00000E+00-4.00000E+00 5.00000E+00
 -1       327 9.00000E+00-3.00000E+00 5.00000E+00
 -1       328 9.00000E+00-2.00000E+00 5.00000E+00
 -1       329 9.00000E+00-1.00000E+00 5.00000E+00
 -1       330 9.00000E+00 0.00000E+00 5.00000E+00
 -1       331 9.00000E+00-5.00000E+00 4.00000E+00
 -1       332 9.00000E+00-4.00000E+00 4.00000E+00
 -1       333 9.00000E+00-3.00000E+00 4.00000E+00
 -1       334 9.00000E+00-2.00000E+00 4.00000E+00
 -1       335 9.00000E+00-1.00000E+00 4.00000E+00
 -1       336 9.00000E+00 0.00000E+00 4.00000E+00
 -1       337 9.00000E+00-5.00000E+00 3.00000E+00
 -1       338 9.00000E+00-4.00000E+00 3.00000E+00
 -1       339 9.00000E+00-3.00000E+00 3.00000E+00
 -1       340 9.00000E+00-2.00000E+00 3.00000E+00
 -1       341 9.00000E+00-1.00000E+00 3.00000E+00
 -1       342 9.00000E+00 0.00000E+00 3.00000E+00
 -1       343 9.00000E+00-5.00000E+00 2.00000E+00
 -1       344 9.00000E+00-4.00000E+00 2.00000E+00
 -1       345 9.00000E+00-3.00000E+00 2.00000E+00
 -1       346 9.00000E+00-2.00000E+00 2.00000E+00
 -1       347 9.00000E+00-1.00000E+00 2.00000E+00
 -1       348 9.00000E+00 0.00000E+00 2.00000E+00
 -1       349 9.00000E+00-5.00000E+00 1.00000E+00
 -1       350 9.00000E+00-4.00000E+00 1.00000E+00
 -1       351 9.00000E+00-3.00000E+00 1.00000E+00
 -1       352 9.00000E+00-2.00000E+00 1.00000E+00
 -1       353 9.00000E+00-1.00000E+00 1.00000E+00
 -1       354 9.00000E+00 0.00000E+00 1.00000E+00
 -1       355 9.00000E+00-5.00000E+00 0.00000E+00
 -1       356 9.00000E+00-4.00000E+00 0.00000E+00
 -1       357 9.00000E+00-3.00000E+00 0.00000E+00
 -1       358 9.00000E+00-2.00000E+00 0.00000E+00
 -1       359 9.00000E+00-1.00000E+00 0.00000E+00
 -1       360 9.00000E+00 0.00000E+00 0.00000E+00
 -1       361 1.00000E+01-5.00000E+00 5.00000E+00
 -1       362 1.00000E+01-4.00000E+00 5.00000E+00
 -1       363 1.00000E+01-3.00000E+00 5.00000E+00
 -1       364 1.00000E+01-2.00000E+00 5.00000E+00
 -1       365 1.00000E+01-1.00000E+00 5.00000E+00
 -1       366 1.00000E+01 0.00000E+00 5.00000E+00
 -1       367 1.00000E+01-5.00000E+00 4.00000E+00
 -1       368 1.00000E+01-4.00000E+00 4.00000E+00
 -1       369 1.00000E+01-3.00000E+00 4.00000E+00
 -1       370 1.00000E+01-2.00000E+00 4.00000E+00
 -1       371 1.00000E+01-1.00000E+00 4.00000E+00
 -1       372 1.00000E+01 0.00000E+00 4.00000E+00
 -1       373 1.00000E+01-5.00000E+00 3.00000E+00
 -1       374 1.00000E+01-4.00000E+00 3.00000E+00
 -1       375 1.00000E+01-3.00000E+00 3.00000E+00
 -1       376 1.00000E+01-2.00000E+00 3.00000E+00
 -1       377 1.00000E+01-1.00000E+00 3.00000E+00
 -1       378 1.00000E+01 0.00000E+00 3.00000E+00
 -1       379 1.00000E+01-5.00000E+00 2.00000E+00
 -1       380 1.00000E+01-4.00000E+00 2.00000E+00
 -1       381 1.00000E+01-3.00000E+00 2.00000E+00
 -1       382 1.00000E+01-2.00000E+00 2.00000E+00
 -1       383 1.00000E+01-1.00000E+00 2.00000E+00
 -1       384 1.00000E+01 0.00000E+00 2.00000E+00
 -1       385 1.00000E+01-5.00000E+00 1.00000E+00
 -1       386 1.00000E+01-4.00000E+00 1.00000E+00
 -1       387 1.00000E+01-3.00000E+00 1.00000E+00
 -1       388 1.00000E+01-2.00000E+00 1.00000E+00
 -1       389 1.00000E+01-1.00000E+00 1.00000E+00
 -1       390 1.00000E+01 0.00000E+00 1.00000E+00
 -1       391 1.00000E+01-5.00000E+00 0.00000E+00
 -1       392 1.00000E+01-4.00000E+00 0.00000E+00
 -1       393 1.00000E+01-3.00000E+00 0.00000E+00
 -1       394 1.00000E+01-2.00000E+00 0.00000E+00
 -1       395 1.00000E+01-1.00000E+00 0.00000E+00
 -1       396 1.00000E+01 0.00000E+00 0.00000E+00
 -1       397 1.10000E+01-5.00000E+00 5.00000E+00
 -1       398 1.10000E+01-4.00000E+00 5.00000E+00
 -1       399 1.10000E+01-3.00000E+00 5.00000E+00
 -1       400 1.10000E+01-2.00000E+00 5.00000E+00
 -1       401 1.10000E+01-1.00000E+00 5.00000E+00
 -1       402 1.10000E+01 0.00000E+00 5.00000E+00
 -1       403 1.10000E+01-5.00000E+00 4.00000E+00
 -1       404 1.10000E+01-4.00000E+00 4.00000E+00
 -1       405 1.10000E+01-3.00000E+00 4.00000E+00
 -1       406 1.10000E+01-2.00000E+00 4.00000E+00
 -1       407 1.10000E+01-1.00000E+00 4.00000E+00
 -1       408 1.10000E+01 0.00000E+00 4.00000E+00
 -1       409 1.10000E+01-5.00000E+00 3.00000E+00
 -1       410 1.10000E+01-4.00000E+00 3.00000E+00
 -1       411 1.10000E+01-3.00000E+00 3.00000E+00
 -1       412 1.10000E+01-2.00000E+00 3.00000E+00
 -1       413 1.10000E+01-1.00000E+00 3.00000E+00
 -1       414 1.10000E+01 0.00000E+00 3.00000E+00
 -1       415 1.10000E+01-5.00000E+00 2.00000E+00
 -1       416 1.10000E+01-4.00000E+00 2.00000E+00
 -1       417 1.10000E+01-3.00000E+00 2.00000E+00
 -1       418 1.10000E+01-2.00000E+00 2.00000E+00
 -1       419 1.10000E+01-1.00000E+00 2.00000E+00
 -1       420 1.10000E+01 0.00000E+00 2.00000E+00
 -1       421 1.10000E+01-5.00000E+00 1.00000E+00
 -1       422 1.10000E+01-4.00000E+00 1.00000E+00
 -1       423 1.10000E+01-3.00000E+00 1.00000E+00
 -1       424 1.10000E+01-2.00000E+00 1.00000E+00
 -1       425 1.10000E+01-1.00000E+00 1.00000E+00
 -1       426 1.10000E+01 0.00000E+00 1.00000E+00
 -1       427 1.10000E+01-5.00000E+00 0.00000E+00
 -1       428 1.10000E+01-4.00000E+00 0.00000E+00
 -1       429 1.10000E+01-3.00000E+00 0.00000E+00
 -1       430 1.10000E+01-2.00000E+00 0.00000E+00
 -1       431 1.10000E+01-1.00000E+00 0.00000E+00
 -1       432 1.10000E+01 0.00000E+00 0.00000E+00
 -1       433 1.20000E+01-5.00000E+00 5.00000E+00
 -1       434 1.20000E+01-4.00000E+00 5.00000E+00
 -1       435 1.20000E+01-3.00000E+00 5.00000E+00
 -1       436 1.20000E+01-2.00000E+00 5.00000E+00
 -1       437 1.20000E+01-1.00000E+00 5.00000E+00
 -1       438 1.20000E+01 0.00000E+00 5.00000E+00
 -1       439 1.20000E+01-5.00000E+00 4.00000E+00
 -1       440 1.20000E+01-4.00000E+00 4.00000E+00
 -1       441 1.20000E+01-3.00000E+00 4.00000E+00
 -1       442 1.20000E+01-2.00000E+00 4.00000E+00
 -1       443 1.20000E+01-1.00000E+00 4.00000E+00
 -1       444 1.20000E+01 0.00000E+00 4.00000E+00
 -1       445 1.20000E+01-5.00000E+00 3.00000E+00
 -1       446 1.20000E+01-4.00000E+00 3.00000E+00
 -1       447 1.20000E+01-3.00000E+00 3.00000E+00
 -1       448 1.20000E+01-2.00000E+00 3.00000E+00
 -1       449 1.20000E+01-1.00000E+00 3.00000E+00
 -1       450 1.20000E+01 0.00000E+00 3.00000E+00
 -1       451 1.20000E+01-5.00000E+00 2.00000E+00
 -1       452 1.20000E+01-4.00000E+00 2.00000E+00
 -1       453 1.20000E+01-3.00000E+00 2.00000E+00
 -1       454 1.20000E+01-2.00000E+00 2.00000E+00
 -1       455 1.20000E+01-1.00000E+00 2.00000E+00
 -1       456 1.20000E+01 0.00000E+00 2.00000E+00
 -1       457 1.20000E+01-5.00000E+00 1.00000E+00
 -1       458 1.20000E+01-4.00000E+00 1.00000E+00
 -1       459 1.20000E+01-3.00000E+00 1.00000E+00
 -1       460 1.20000E+01-2.00000E+00 1.00000E+00
 -1       461 1.20000E+01-1.00000E+00 1.00000E+00
 -1       462 1.20000E+01 0.00000E+00 1.00000E+00
 -1       463 1.20000E+01-5.00000E+00 0.00000E+00
 -1       464 1.20000E+01-4.00000E+00 0.00000E+00
 -1       465 1.20000E+01-3.00000E+00 0.00000E+00
 -1       466 1.20000E+01-2.00000E+00 0.00000E+00
 -1       467 1.20000E+01-1.00000E+00 0.00000E+00
 -1       468 1.20000E+01 0.00000E+00 0.00000E+00
 -1       469 1.30000E+01-5.00000E+00 5.00000E+00
 -1       470 1.30000E+01-4.00000E+00 5.00000E+00
 -1       471 1.30000E+01-3.00000E+00 5.00000E+00
 -1       472 1.30000E+01-2.00000E+00 5.00000E+00
 -1       473 1.30000E+01-1.00000E+00 5.00000E+00
 -1       474 1.30000E+01 0.00000E+00 5.00000E+00
 -1       475 1.30000E+01-5.00000E+00 4.00000E+00
 -1       476 1.30000E+01-4.00000E+00 4.00000E+00
 -1       477 1.30000E+01-3.00000E+00 4.00000E+00
 -1       478 1.30000E+01-2.00000E+00 4.00000E+00
 -1       479 1.30000E+01-1.00000E+00 4.00000E+00
 -1       480 1.30000E+01 0.00000E+00 4.00000E+00
 -1       481 1.30000E+01-5.00000E+00 3.00000E+00
 -1       482 1.30000E+01-4.00000E+00 3.00000E+00
 -1       483 1.30000E+01-3.00000E+00 3.00000E+00
 -1       484 1.30000E+01-2.00000E+00 3.00000E+00
 -1       485 1.30000E+01-1.00000E+00 3.00000E+00
 -1       486 1.30000E+01 0.00000E+00 3.00000E+00
 -1       487 1.30000E+01-5.00000E+00 2.00000E+00
 -1       488 1.30000E+01-4.00000E+00 2.00000E+00
 -1       489 1.30000E+01-3.00000E+00 2.00000E+00
 -1       490 1.30000E+01-2.00000E+00 2.00000E+00
 -1       491 1.30000E+01-1.00000E+00 2.00000E+00
 -1       492 1.30000E+01 0.00000E+00 2.00000E+00
 -1       493 1.30000E+01-5.00000E+00 1.00000E+00
 -1       494 1.30000E+01-4.00000E+00 1.00000E+00
 -1       495 1.30000E+01-3.00000E+00 1.00000E+00
 -1       496 1.30000E+01-2.00000E+00 1.00000E+00
 -1       497 1.30000E+01-1.00000E+00 1.00000E+00
 -1       498 1.30000E+01 0.00000E+00 1.00000E+00
 -1       499 1.30000E+01-5.00000E+00 0.00000E+00
 -1       500 1.30000E+01-4.00000E+00 0.00000E+00
 -1       501 1.30000E+01-3.00000E+00 0.00000E+00
 -1       502 1.30000E+01-2.00000E+00 0.00000E+00
 -1       503 1.30000E+01-1.00000E+00 0.00000E+00
 -1       504 1.30000E+01 0.00000E+00 0.00000E+00
 -1       505 1.40000E+01-5.00000E+00 5.00000E+00
 -1       506 1.40000E+01-4.00000E+00 5.00000E+00
 -1       507 1.40000E+01-3.00000E+00 5.00000E+00
 -1       508 1.40000E+01-2.00000E+00 5.00000E+00
 -1       509 1.40000E+01-1.00000E+00 5.00000E+00
 -1       510 1.40000E+01 0.00000E+00 5.00000E+00
 -1       511 1.40000E+01-5.00000E+00 4.00000E+00
 -1       512 1.40000E+01-4.00000E+00 4.00000E+00
 -1       513 1.40000E+01-3.00000E+00 4.00000E+00
 -1       514 1.40000E+01-2.00000E+00 4.00000E+00
 -1       515 1.40000E+01-1.00000E+00 4.00000E+00
 -1       516 1.40000E+01 0.00000E+00 4.00000E+00
 -1       517 1.40000E+01-5.00000E+00 3.00000E+00
 -1       518 1.40000E+01-4.00000E+00 3.00000E+00
 -1       519 1.40000E+01-3.00000E+00 3.00000E+00
 -1       520 1.40000E+01-2.00000E+00 3.00000E+00
 -1       521 1.40000E+01-1.00000E+00 3.00000E+00
 -1       522 1.40000E+01 0.00000E+00 3.00000E+00
 -1       523 1.40000E+01-5.00000E+00 2.00000E+00
 -1       524 1.40000E+01-4.00000E+00 2.00000E+00
 -1       525 1.40000E+01-3.00000E+00 2.00000E+00
 -1       526 1.40000E+01-2.00000E+00 2.00000E+00
 -1       527 1.40000E+01-1.00000E+00 2.00000E+00
 -1       528 1.40000E+01 0.00000E+00 2.00000E+00
 -1       529 1.40000E+01-5.00000E+00 1.00000E+00
 -1       530 1.40000E+01-4.00000E+00 1.00000E+00
 -1       531 1.40000E+01-3.00000E+00 1.00000E+00
 -1       532 1.40000E+01-2.00000E+00 1.00000E+00
 -1       533 1.40000E+01-1.00000E+00 1.00000E+00
 -1       534 1.40000E+01 0.00000E+00 1.00000E+00
 -1       535 1.40000E+01-5.00000E+00 0.00000E+00
 -1       536 1.40000E+01-4.00000E+00 0.00000E+00
 -1       537 1.40000E+01-3.00000E+00 0.00000E+00
 -1       538 1.40000E+01-2.00000E+00 0.00000E+00
 -1       539 1.40000E+01-1.00000E+00 0.00000E+00
 -1       540 1.40000E+01 0.00000E+00 0.00000E+00
 -1       541 1.50000E+01-5.00000E+00 5.00000E+00
 -1       542 1.50000E+01-4.00000E+00 5.00000E+00
 -1       543 1.50000E+01-3.00000E+00 5.00000E+00
 -1       544 1.50000E+01-2.00000E+00 5.00000E+00
 -1       545 1.50000E+01-1.00000E+00 5.00000E+00
 -1       546 1.50000E+01 0.00000E+00 5.00000E+00
 -1       547 1.50000E+01-5.00000E+00 4.00000E+00
 -1       548 1.50000E+01-4.00000E+00 4.00000E+00
 -1       549 1.50000E+01-3.00000E+00 4.00000E+00
 -1       550 1.50000E+01-2.00000E+00 4.00000E+00
 -1       551 1.50000E+01-1.00000E+00 4.00000E+00
 -1       552 1.50000E+01 0.00000E+00 4.00000E+00
 -1       553 1.50000E+01-5.00000E+00 3.00000E+00
 -1       554 1.50000E+01-4.00000E+00 3.00000E+00
 -1       555 1.50000E+01-3.00000E+00 3.00000E+00
 -1       556 1.50000E+01-2.00000E+00 3.00000E+00
 -1       557 1.50000E+01-1.00000E+00 3.00000E+00
 -1       558 1.50000E+01 0.00000E+00 3.00000E+00
 -1       559 1.50000E+01-5.00000E+00 2.00000E+00
 -1       560 1.50000E+01-4.00000E+00 2.00000E+00
 -1       561 1.50000E+01-3.00000E+00 2.00000E+00
 -1       562 1.50000E+01-2.00000E+00 2.00000E+00
 -1       563 1.50000E+01-1.00000E+00 2.00000E+00
 -1       564 1.50000E+01 0.00000E+00 2.00000E+00
 -1       565 1.50000E+01-5.00000E+00 1.00000E+00
 -1       566 1.50000E+01-4.00000E+00 1.00000E+00
 -1       567 1.50000E+01-3.00000E+00 1.00000E+00
 -1       568 1.50000E+01-2.00000E+00 1.00000E+00
 -1       569 1.50000E+01-1.00000E+00 1.00000E+00
 -1       570 1.50000E+01 0.00000E+00 1.00000E+00
 -1       571 1.50000E+01-5.00000E+00 0.00000E+00
 -1       572 1.50000E+01-4.00000E+00 0.00000E+00
 -1       573 1.50000E+01-3.00000E+00 0.00000E+00
 -1       574 1.50000E+01-2.00000E+00 0.00000E+00
 -1       575 1.50000E+01-1.00000E+00 0.00000E+00
 -1       576 1.50000E+01 0.00000E+00 0.00000E+00
 -1       577 1.60000E+01-5.00000E+00 5.00000E+00
 -1       578 1.60000E+01-4.00000E+00 5.00000E+00
 -1       579 1.60000E+01-3.00000E+00 5.00000E+00
 -1       580 1.60000E+01-2.00000E+00 5.00000E+00
 -1       581 1.60000E+01-1.00000E+00 5.00000E+00
 -1       582 1.60000E+01 0.00000E+00 5.00000E+00
 -1       583 1.60000E+01-5.00000E+00 4.00000E+00